 Gaussian 16, Revision B.01,
 Gaussian 16:  ES64L-G16RevB.01 20-Dec-2017

 -----------------------------------------------------------
 #p nmr=giao rb3lyp/6-311+g(2d,p) scrf=(smd,solvent=benzene)
 -----------------------------------------------------------

 -------------------
 Title Card Required
 -------------------
 Symbolic Z-matrix:
 Charge =  0 Multiplicity = 1

                         Standard orientation:
 ---------------------------------------------------------------------
 Center     Atomic      Atomic             Coordinates (Angstroms)
 Number     Number       Type             X           Y           Z
 ---------------------------------------------------------------------
      1          6           0        3.859114    0.932288    0.492161
      2          6           0        3.585241   -0.116696   -0.639010
      3          6           0        3.725109   -1.308132    0.370735
      4          6           0        5.177607   -1.067449    0.887308
      5          1           0        5.881815   -1.481205    0.161306
      6          6           0        5.269245    0.486173    0.958098
      7          1           0        6.012164    0.854321    0.247953
      8          7           0        2.925881    0.418142    1.540858
      9          7           0        2.855041   -0.819565    1.466715
     10          8           0        2.313279    0.078638   -1.155431
     11          8           0        4.550922   -0.235899   -1.627108
     12          6           0        1.958501   -0.687928   -2.300247
     13          1           0        0.872436   -0.791322   -2.272926
     14          1           0        2.415123   -1.679113   -2.295390
     15          1           0        2.248005   -0.165637   -3.219490
     16          6           0        4.747222    0.915612   -2.436479
     17          1           0        3.810373    1.458260   -2.595145
     18          1           0        5.136498    0.561717   -3.392994
     19          1           0        5.472861    1.596475   -1.977643
     20          6           0        3.332529   -2.682991   -0.087670
     21          6           0        2.474689   -5.161672   -1.084660
     22          6           0        4.226445   -3.532945   -0.742440
     23          6           0        2.007525   -3.087901    0.066991
     24          6           0        1.563527   -4.315002   -0.440180
     25          6           0        3.798331   -4.766188   -1.227183
     26          1           0        5.258107   -3.232014   -0.890964
     27          1           0        1.304772   -2.433815    0.571268
     28          1           0        4.503964   -5.419588   -1.731201
     29          1           0        2.135663   -6.114646   -1.477518
     30          6           0        3.609303    2.390396    0.228093
     31          6           0        3.037918    5.093817   -0.267647
     32          6           0        2.291960    2.818279    0.068639
     33          6           0        4.636216    3.333097    0.152491
     34          6           0        4.350046    4.672818   -0.099229
     35          6           0        1.994014    4.163578   -0.178291
     36          1           0        1.484637    2.099030    0.140101
     37          1           0        5.669038    3.029885    0.295713
     38          1           0        5.159303    5.394512   -0.155308
     39          1           0        2.811057    6.137773   -0.457940
     40          6           0        0.173491   -4.639116   -0.340129
     41          6           0       -1.023541   -4.809834   -0.278742
     42          6           0        0.623204    4.548246   -0.319752
     43          6           0       -0.559704    4.786956   -0.416446
     44          6           0       -2.453759   -4.831857   -0.231667
     45          6           0       -5.243355   -4.709066   -0.207252
     46          6           0       -3.206585   -5.980337   -0.503496
     47          6           0       -3.115382   -3.635743    0.068018
     48          6           0       -4.507933   -3.550344    0.066037
     49          6           0       -4.594905   -5.909980   -0.481477
     50          1           0       -2.702311   -6.913411   -0.732275
     51          1           0       -2.519257   -2.763119    0.313724
     52          1           0       -5.180443   -6.798578   -0.697194
     53          1           0       -6.328578   -4.666077   -0.232085
     54          6           0       -1.982751    4.914850   -0.495339
     55          6           0       -4.770649    5.027107   -0.628937
     56          6           0       -2.761461    3.804755   -0.148623
     57          6           0       -2.617303    6.093982   -0.904200
     58          6           0       -4.005546    6.140931   -0.963354
     59          6           0       -4.154270    3.839136   -0.221078
     60          1           0       -2.259751    2.908531    0.201518
     61          1           0       -2.021818    6.960874   -1.171061
     62          1           0       -4.498225    7.053604   -1.284764
     63          1           0       -5.853258    5.072988   -0.707919
     64          6           0       -4.928590    2.621864    0.129464
     65          1           0       -3.540470    1.293598   -0.807918
     66          6           0       -4.450656    1.379745   -0.219985
     67          6           0       -6.816201    1.567625    1.241789
     68          6           0       -5.107715    0.191812    0.178671
     69          6           0       -6.145563    2.700959    0.861514
     70          6           0       -6.309589    0.279308    0.928240
     71          6           0       -4.568968   -1.081319   -0.121232
     72          1           0       -6.526748    3.676519    1.150003
     73          1           0       -7.846829   -0.869901    1.930649
     74          1           0       -7.735615    1.645562    1.816375
     75          6           0       -5.156342   -2.241050    0.330742
     76          1           0       -3.662964   -1.127698   -0.719680
     77          6           0       -6.367050   -2.144353    1.071168
     78          1           0       -6.834021   -3.051454    1.444290
     79          6           0       -6.928491   -0.925851    1.351784
     80          6           0        5.644905    0.846090    2.415604
     81          1           0        4.896159    1.494057    2.886267
     82          1           0        6.600535    1.382391    2.464533
     83          6           0        5.726389   -0.494614    3.102799
     84          1           0        5.959148   -0.586406    4.159139
     85          6           0        5.470621   -1.518138    2.291477
     86          1           0        5.457493   -2.563569    2.581404
 ---------------------------------------------------------------------

 SCF Done:  E(RB3LYP) =  -2109.97621978     A.U. after   14 cycles

      1  C    Isotropic =    79.9631   Anisotropy =    29.6014

      2  C    Isotropic =    58.3649   Anisotropy =    24.7538

      3  C    Isotropic =    82.7128   Anisotropy =    33.7957

      4  C    Isotropic =   121.6410   Anisotropy =    28.3564

      5  H    Isotropic =    27.1579   Anisotropy =     6.0749

      6  C    Isotropic =   137.8745   Anisotropy =    27.1193

      7  H    Isotropic =    27.8845   Anisotropy =     5.5854

      8  N    Isotropic =  -323.6297   Anisotropy =   646.8819

      9  N    Isotropic =  -323.7516   Anisotropy =   669.3932

     10  O    Isotropic =   283.3965   Anisotropy =    64.0483

     11  O    Isotropic =   268.9735   Anisotropy =    71.5209

     12  C    Isotropic =   130.3068   Anisotropy =    72.4812

     13  H    Isotropic =    28.8314   Anisotropy =     8.7229

     14  H    Isotropic =    29.6048   Anisotropy =     7.5558

     15  H    Isotropic =    29.1709   Anisotropy =     8.7723

     16  C    Isotropic =   128.9871   Anisotropy =    71.8755

     17  H    Isotropic =    29.0782   Anisotropy =     6.1140

     18  H    Isotropic =    28.8309   Anisotropy =    10.3717

     19  H    Isotropic =    28.5883   Anisotropy =     8.0928

     20  C    Isotropic =    39.9118   Anisotropy =   189.9100

     21  C    Isotropic =    47.4839   Anisotropy =   175.5418

     22  C    Isotropic =    52.1833   Anisotropy =   181.9977

     23  C    Isotropic =    40.6698   Anisotropy =   179.6940

     24  C    Isotropic =    53.1272   Anisotropy =   164.6733

     25  C    Isotropic =    49.9727   Anisotropy =   183.2233

     26  H    Isotropic =    23.9736   Anisotropy =    10.2196

     27  H    Isotropic =    22.8661   Anisotropy =    10.4396

     28  H    Isotropic =    24.0874   Anisotropy =     5.4810

     29  H    Isotropic =    23.9366   Anisotropy =     6.9643

     30  C    Isotropic =    38.8107   Anisotropy =   191.4280

     31  C    Isotropic =    47.7033   Anisotropy =   175.1553

     32  C    Isotropic =    37.8542   Anisotropy =   179.1995

     33  C    Isotropic =    50.3249   Anisotropy =   178.2677

     34  C    Isotropic =    50.9302   Anisotropy =   181.7055

     35  C    Isotropic =    53.7566   Anisotropy =   163.3702

     36  H    Isotropic =    23.2589   Anisotropy =    11.9328

     37  H    Isotropic =    23.9442   Anisotropy =    10.3630

     38  H    Isotropic =    24.1095   Anisotropy =     5.4936

     39  H    Isotropic =    23.9661   Anisotropy =     7.0158

     40  C    Isotropic =    84.8256   Anisotropy =   217.3686

     41  C    Isotropic =    84.5956   Anisotropy =   217.3222

     42  C    Isotropic =    84.9689   Anisotropy =   216.9421

     43  C    Isotropic =    85.3883   Anisotropy =   216.7660

     44  C    Isotropic =    52.6159   Anisotropy =   163.0190

     45  C    Isotropic =    51.3412   Anisotropy =   172.6999

     46  C    Isotropic =    49.3825   Anisotropy =   174.1261

     47  C    Isotropic =    41.7793   Anisotropy =   161.1468

     48  C    Isotropic =    33.7755   Anisotropy =   190.8605

     49  C    Isotropic =    49.1391   Anisotropy =   182.9966

     50  H    Isotropic =    24.0595   Anisotropy =     7.5760

     51  H    Isotropic =    23.2576   Anisotropy =    12.4702

     52  H    Isotropic =    24.0859   Anisotropy =     5.3220

     53  H    Isotropic =    23.8234   Anisotropy =     8.6046

     54  C    Isotropic =    53.0125   Anisotropy =   163.4965

     55  C    Isotropic =    51.3337   Anisotropy =   172.4809

     56  C    Isotropic =    41.3933   Anisotropy =   161.1103

     57  C    Isotropic =    49.2864   Anisotropy =   174.3211

     58  C    Isotropic =    49.3167   Anisotropy =   182.8342

     59  C    Isotropic =    33.3120   Anisotropy =   191.3402

     60  H    Isotropic =    23.3369   Anisotropy =    12.4850

     61  H    Isotropic =    24.1041   Anisotropy =     7.5050

     62  H    Isotropic =    24.0658   Anisotropy =     5.2769

     63  H    Isotropic =    23.8437   Anisotropy =     8.5354

     64  C    Isotropic =    36.8700   Anisotropy =   186.2345

     65  H    Isotropic =    23.1876   Anisotropy =    11.1906

     66  C    Isotropic =    49.5601   Anisotropy =   146.5095

     67  C    Isotropic =    50.2968   Anisotropy =   160.1977

     68  C    Isotropic =    43.2482   Anisotropy =   211.4094

     69  C    Isotropic =    52.7922   Anisotropy =   164.9894

     70  C    Isotropic =    45.5940   Anisotropy =   211.5887

     71  C    Isotropic =    49.3289   Anisotropy =   147.6889

     72  H    Isotropic =    23.7747   Anisotropy =     8.5943

     73  H    Isotropic =    23.5156   Anisotropy =     7.5170

     74  H    Isotropic =    23.5790   Anisotropy =     7.4178

     75  C    Isotropic =    37.1345   Anisotropy =   185.9804

     76  H    Isotropic =    23.1841   Anisotropy =    11.3387

     77  C    Isotropic =    53.1376   Anisotropy =   166.5700

     78  H    Isotropic =    23.6839   Anisotropy =     8.7233

     79  C    Isotropic =    49.9560   Anisotropy =   160.1022

     80  C    Isotropic =   146.0425   Anisotropy =    31.2459

     81  H    Isotropic =    29.4230   Anisotropy =     5.3147

     82  H    Isotropic =    29.2679   Anisotropy =    10.2817

     83  C    Isotropic =    40.1957   Anisotropy =   139.3213

     84  H    Isotropic =    25.9964   Anisotropy =     3.4955

     85  C    Isotropic =    48.0821   Anisotropy =   137.9818

     86  H    Isotropic =    25.9800   Anisotropy =     4.9141

 The electronic state is 1-A.
 Alpha  occ. eigenvalues --  -19.14882 -19.14198 -14.36194 -14.36083 -10.29503
 Alpha  occ. eigenvalues --  -10.22033 -10.22019 -10.21720 -10.21080 -10.20440
 Alpha  occ. eigenvalues --  -10.20345 -10.20306 -10.20295 -10.19066 -10.19026
 Alpha  occ. eigenvalues --  -10.18970 -10.18926 -10.18872 -10.18814 -10.18785
 Alpha  occ. eigenvalues --  -10.18751 -10.18456 -10.18406 -10.18232 -10.18168
 Alpha  occ. eigenvalues --  -10.18126 -10.18101 -10.18080 -10.18043 -10.18042
 Alpha  occ. eigenvalues --  -10.17972 -10.17953 -10.17925 -10.17921 -10.17917
 Alpha  occ. eigenvalues --  -10.17892 -10.17880 -10.17852 -10.17843 -10.17741
 Alpha  occ. eigenvalues --  -10.17733 -10.17665 -10.17655 -10.17649 -10.17551
 Alpha  occ. eigenvalues --  -10.17466 -10.17454 -10.17421 -10.17323 -10.17117
 Alpha  occ. eigenvalues --  -10.16804 -10.16566  -1.10386  -1.05710  -1.02810
 Alpha  occ. eigenvalues --   -0.88889  -0.87952  -0.87887  -0.87697  -0.86936
 Alpha  occ. eigenvalues --   -0.86392  -0.83643  -0.82008  -0.81102  -0.80135
 Alpha  occ. eigenvalues --   -0.79239  -0.78758  -0.77535  -0.77193  -0.76635
 Alpha  occ. eigenvalues --   -0.76346  -0.75975  -0.73840  -0.73090  -0.72813
 Alpha  occ. eigenvalues --   -0.72306  -0.72003  -0.71759  -0.70513  -0.69966
 Alpha  occ. eigenvalues --   -0.66884  -0.64724  -0.64502  -0.64107  -0.63197
 Alpha  occ. eigenvalues --   -0.62734  -0.62164  -0.62000  -0.61222  -0.59952
 Alpha  occ. eigenvalues --   -0.59743  -0.59455  -0.58945  -0.58466  -0.56069
 Alpha  occ. eigenvalues --   -0.55554  -0.54757  -0.54222  -0.53485  -0.52990
 Alpha  occ. eigenvalues --   -0.51931  -0.51807  -0.51780  -0.49862  -0.49563
 Alpha  occ. eigenvalues --   -0.49420  -0.49027  -0.48929  -0.48536  -0.47976
 Alpha  occ. eigenvalues --   -0.47443  -0.46952  -0.46859  -0.46647  -0.46252
 Alpha  occ. eigenvalues --   -0.45795  -0.45254  -0.45102  -0.44930  -0.44355
 Alpha  occ. eigenvalues --   -0.44037  -0.43533  -0.43430  -0.43113  -0.43055
 Alpha  occ. eigenvalues --   -0.42711  -0.42491  -0.42015  -0.41621  -0.41237
 Alpha  occ. eigenvalues --   -0.40516  -0.40196  -0.39532  -0.39425  -0.38951
 Alpha  occ. eigenvalues --   -0.38747  -0.38482  -0.38420  -0.37750  -0.37601
 Alpha  occ. eigenvalues --   -0.37387  -0.36893  -0.36657  -0.36365  -0.36306
 Alpha  occ. eigenvalues --   -0.36046  -0.35899  -0.35786  -0.35709  -0.35543
 Alpha  occ. eigenvalues --   -0.35062  -0.34613  -0.33874  -0.33751  -0.33532
 Alpha  occ. eigenvalues --   -0.33322  -0.32539  -0.32338  -0.31498  -0.29995
 Alpha  occ. eigenvalues --   -0.29567  -0.28740  -0.28412  -0.28127  -0.27717
 Alpha  occ. eigenvalues --   -0.27332  -0.27132  -0.26475  -0.26402  -0.26086
 Alpha  occ. eigenvalues --   -0.24480  -0.23456  -0.23231  -0.22281  -0.22117
 Alpha  occ. eigenvalues --   -0.21680
 Alpha virt. eigenvalues --   -0.06030  -0.05974  -0.05460  -0.05209  -0.04206
 Alpha virt. eigenvalues --   -0.02855  -0.01925  -0.01379  -0.01280  -0.00744
 Alpha virt. eigenvalues --   -0.00359   0.00024   0.00336   0.00616   0.00792

 Mulliken charges:
               1
     1  C    0.791060
     2  C    0.055238
     3  C    0.965534
     4  C    0.039787
     5  H    0.092476
     6  C   -0.252336
     7  H    0.087289
     8  N   -0.431932
     9  N   -0.121617
    10  O   -0.407916
    11  O   -0.411878
    12  C   -0.086970
    13  H    0.153788
    14  H    0.182811
    15  H    0.136522
    16  C   -0.059500
    17  H    0.172146
    18  H    0.143767
    19  H    0.150044
    20  C    0.663739
    21  C   -0.437777
    22  C   -0.489619
    23  C   -0.414137
    24  C    0.484316
    25  C   -0.345145
    26  H    0.117552
    27  H    0.139393
    28  H    0.106233
    29  H    0.117045
    30  C    0.632294
    31  C   -0.439291
    32  C   -0.388784
    33  C   -0.413014
    34  C   -0.441431
    35  C    0.556822
    36  H    0.147466
    37  H    0.118362
    38  H    0.104851
    39  H    0.116568
    40  C   -0.110888
    41  C    0.084021
    42  C   -0.109692
    43  C    0.005656
    44  C    0.581042
    45  C   -0.393622
    46  C   -0.593219
    47  C   -0.623506
    48  C    0.592747
    49  C   -0.134868
    50  H    0.116087
    51  H    0.130563
    52  H    0.105745
    53  H    0.112695
    54  C    0.608469
    55  C   -0.434607
    56  C   -0.612271
    57  C   -0.639887
    58  C   -0.126924
    59  C    0.609525
    60  H    0.131687
    61  H    0.115712
    62  H    0.105650
    63  H    0.113560
    64  C    0.679775
    65  H    0.114064
    66  C   -0.439878
    67  C   -0.316982
    68  C   -0.145425
    69  C   -0.429425
    70  C    0.588941
    71  C   -0.445786
    72  H    0.110078
    73  H    0.105128
    74  H    0.105240
    75  C    0.660977
    76  H    0.112182
    77  C   -0.417832
    78  H    0.109295
    79  C   -0.302063
    80  C   -0.712830
    81  H    0.152621
    82  H    0.124528
    83  C    0.055507
    84  H    0.103003
    85  C   -0.694811
    86  H    0.116262
 Sum of Mulliken charges =  -0.00000

 Dipole moment (field-independent basis, Debye):
    X=              2.2672    Y=              0.5320    Z=             -3.3530  Tot=              4.0823
 Quadrupole moment (field-independent basis, Debye-Ang):
   XX=           -241.7605   YY=           -279.5114   ZZ=           -305.2415
   XY=              4.8769   XZ=            -13.5049   YZ=              2.3550

 Normal termination of Gaussian 16 at Mon Sep  6 11:42:42 2021.
