 Gaussian 16, Revision B.01,
 Gaussian 16:  ES64L-G16RevB.01 20-Dec-2017

 --------------------------------------------------------------
 #p nmr=giao rb3lyp/6-311+g(2d,p) scrf=(smd,solvent=chloroform)
 --------------------------------------------------------------

 -------------------
 Title Card Required
 -------------------
 Symbolic Z-matrix:
 Charge =  0 Multiplicity = 1

                         Standard orientation:
 ---------------------------------------------------------------------
 Center     Atomic      Atomic             Coordinates (Angstroms)
 Number     Number       Type             X           Y           Z
 ---------------------------------------------------------------------
      1          6           0        0.006920    1.391872   -0.000001
      2          6           0        1.208890    0.689893    0.000007
      3          6           0        1.201952   -0.701923   -0.000011
      4          6           0       -0.006982   -1.391872    0.000001
      5          6           0       -1.208860   -0.689945    0.000008
      6          6           0       -1.201921    0.701975   -0.000006
      7          1           0        0.012398    2.475594    0.000006
      8          1           0        2.150095    1.227127    0.000009
      9          1           0        2.137736   -1.248541    0.000002
     10          1           0       -0.012318   -2.475594   -0.000002
     11          1           0       -2.150133   -1.227061    0.000010
     12          1           0       -2.137775    1.248474   -0.000016
 ---------------------------------------------------------------------

 SCF Done:  E(RB3LYP) =  -232.326405258     A.U. after    9 cycles

      1  C    Isotropic =    49.7135   Anisotropy =   188.6061

      2  C    Isotropic =    49.6118   Anisotropy =   188.7551

      3  C    Isotropic =    49.6089   Anisotropy =   188.7616

      4  C    Isotropic =    49.7133   Anisotropy =   188.6062

      5  C    Isotropic =    49.6121   Anisotropy =   188.7549

      6  C    Isotropic =    49.6095   Anisotropy =   188.7614

      7  H    Isotropic =    24.1077   Anisotropy =     5.3106

      8  H    Isotropic =    24.0931   Anisotropy =     5.3160

      9  H    Isotropic =    24.0925   Anisotropy =     5.3165

     10  H    Isotropic =    24.1077   Anisotropy =     5.3107

     11  H    Isotropic =    24.0931   Anisotropy =     5.3160

     12  H    Isotropic =    24.0925   Anisotropy =     5.3164

 The electronic state is 1-A.
 Alpha  occ. eigenvalues --  -10.17284 -10.17260 -10.17260 -10.17200 -10.17199
 Alpha  occ. eigenvalues --  -10.17173  -0.85772  -0.74816  -0.74816  -0.60385
 Alpha  occ. eigenvalues --   -0.60384  -0.52480  -0.45951  -0.45016  -0.42241
 Alpha  occ. eigenvalues --   -0.42240  -0.37261  -0.34521  -0.34520  -0.25851
 Alpha  occ. eigenvalues --   -0.25849
 Alpha virt. eigenvalues --   -0.01505  -0.01504   0.01025   0.03039   0.03039
 Alpha virt. eigenvalues --    0.05297   0.05298   0.06056   0.07038   0.08594
 Alpha virt. eigenvalues --    0.09052   0.09053   0.10587   0.12848   0.14290

 Mulliken charges:
               1
     1  C   -0.110878
     2  C   -0.110467
     3  C   -0.110448
     4  C   -0.110878
     5  C   -0.110467
     6  C   -0.110447
     7  H    0.110555
     8  H    0.110614
     9  H    0.110624
    10  H    0.110555
    11  H    0.110614
    12  H    0.110623
 Sum of Mulliken charges =  -0.00000

 Dipole moment (field-independent basis, Debye):
    X=              0.0000    Y=             -0.0000    Z=              0.0000  Tot=              0.0000
 Quadrupole moment (field-independent basis, Debye-Ang):
   XX=            -31.3990   YY=            -31.4022   ZZ=            -40.3909
   XY=             -0.0000   XZ=              0.0000   YZ=             -0.0000

 Normal termination of Gaussian 16 at Fri Sep  3 09:49:59 2021.
